 Gaussian 09, Revision A.02,
 Gaussian 09:  EM64L-G09RevA.02 11-Jun-2009

 -------------------------------------------------------------
 #p td(singlets,add=10) b3lyp/gen nosymm geom=check guess=read
 -------------------------------------------------------------

 fb3mescooh b3lypopt freq b3lypopt t2 td10b3lyp add10
 ----------------------------------------------------
 Z-Matrix taken from the checkpoint file:
 fb3mescooh.chk
 Charge =  0 Multiplicity = 1

                         Z-Matrix orientation:
 ---------------------------------------------------------------------
 Center     Atomic      Atomic             Coordinates (Angstroms)
 Number     Number       Type             X           Y           Z
 ---------------------------------------------------------------------
      1          8           0       39.746408   44.264738   46.450969
      2          8           0       40.444171   42.482166   45.266060
      3          7           0       33.160396   44.941565   41.094297
      4          7           0       33.156347   46.184538   37.214579
      5          7           0       35.264125   45.481464   39.145742
      6          7           0       31.052695   45.619202   39.155033
      7          6           0       39.688518   43.427168   45.382751
      8          6           0       38.627657   43.795302   44.410653
      9          6           0       38.473628   42.998639   43.268083
     10          6           0       38.171606   48.148912   34.731806
     11          6           0       28.212622   48.393990   34.774729
     12          6           0       28.119584   42.940709   43.529189
     13          6           0       37.495209   43.304120   42.327493
     14          6           0       36.645882   44.410619   42.504755
     15          6           0       36.664030   46.572723   35.786888
     16          6           0       29.662615   46.751000   35.808068
     17          6           0       29.646311   44.518276   42.504861
     18          6           0       36.808754   45.202031   43.654777
     19          6           0       37.787009   44.901239   44.598975
     20          6           0       38.148727   45.864929   34.008014
     21          6           0       28.152961   46.120337   34.020992
     22          6           0       28.177478   45.206883   44.304860
     23          6           0       35.594869   44.743494   41.492383
     24          6           0       35.598400   46.260273   36.804196
     25          6           0       30.720569   46.389593   36.816264
     26          6           0       30.713825   44.839735   41.492331
     27          6           0       36.049530   45.143649   40.223499
     28          6           0       36.042513   45.841785   38.068091
     29          6           0       30.271014   45.988242   38.084170
     30          6           0       30.270378   45.278622   40.234148
     31          6           0       37.411786   45.305568   39.800131
     32          6           0       37.406530   45.720484   38.494560
     33          6           0       28.907813   45.877440   38.516854
     34          6           0       28.907278   45.447406   39.818373
     35          6           0       34.238589   44.640527   41.876353
     36          6           0       34.247837   46.412322   36.425707
     37          6           0       32.074392   46.473798   36.430845
     38          6           0       32.063176   44.678495   41.867868
     39          6           0       33.813080   44.156194   43.188109
     40          6           0       33.847055   46.858830   35.093733
     41          6           0       32.492530   46.897968   35.097367
     42          6           0       32.458841   44.185826   43.183434
     43          1           0       34.465023   43.829523   43.985393
     44          1           0       34.521192   47.104336   34.284908
     45          1           0       31.829120   47.182426   34.292346
     46          1           0       31.782142   43.897232   43.975622
     47          1           0       40.470458   43.925792   47.009528
     48          1           0       38.273759   45.131701   40.426528
     49          1           0       38.260247   45.939083   37.869778
     50          1           0       28.053094   46.100920   37.895001
     51          1           0       28.051773   45.255908   40.449680
     52          1           0       37.906387   45.523464   45.479057
     53          1           0       38.524915   45.074857   33.360830
     54          1           0       27.753562   45.354424   33.358658
     55          1           0       27.817228   45.986378   44.974022
     56          1           0       36.164463   46.064035   43.799591
     57          1           0       37.373422   42.677398   41.448992
     58          1           0       39.126116   42.141364   43.138376
     59          1           0       38.566442   49.160422   34.655926
     60          1           0       27.860249   49.421525   34.707166
     61          1           0       27.714164   41.932399   43.586054
     62          1           0       34.249195   45.484978   39.155913
     63          1           0       32.067485   45.605054   39.145715
     64          6           0       39.720766   47.475116   32.845282
     65          1           0       40.303827   46.587277   32.578326
     66          1           0       40.416445   48.243174   33.201049
     67          1           0       39.264812   47.855110   31.921011
     68          6           0       36.671796   48.997027   36.569756
     69          1           0       37.189534   49.936086   36.350991
     70          1           0       36.822999   48.766377   37.630757
     71          1           0       35.596787   49.162923   36.432863
     72          6           0       36.625008   44.139761   35.032605
     73          1           0       37.110280   43.494460   34.293806
     74          1           0       35.543685   44.103644   34.856080
     75          1           0       36.797314   43.705934   36.024673
     76          6           0       29.726427   46.931283   43.319837
     77          1           0       29.245774   47.569340   44.067912
     78          1           0       29.569831   47.387964   42.335437
     79          1           0       30.806699   46.945617   43.505588
     80          6           0       29.605273   42.112550   41.669685
     81          1           0       29.081178   41.174144   41.875724
     82          1           0       30.679818   41.935100   41.794857
     83          1           0       29.447461   42.363061   40.614100
     84          6           0       26.558576   43.607371   45.411962
     85          1           0       26.899188   43.812510   46.434606
     86          1           0       26.258893   42.555608   45.364892
     87          1           0       25.661973   44.217688   45.245066
     88          6           0       29.621338   44.330448   35.014309
     89          1           0       29.111389   43.712022   34.269143
     90          1           0       29.441053   43.887640   36.001017
     91          1           0       30.699883   44.263072   34.830655
     92          6           0       29.749782   49.165368   36.615959
     93          1           0       29.274897   50.127694   36.401060
     94          1           0       30.831577   49.284390   36.484155
     95          1           0       29.584302   48.935922   37.675176
     96          6           0       26.588506   47.784855   32.928521
     97          1           0       26.689390   47.211960   31.999997
     98          1           0       26.611155   48.849693   32.673714
     99          1           0       25.591338   47.567976   33.334992
    100          6           0       38.669771   47.155537   33.883364
    101          6           0       37.177668   47.883327   35.679799
    102          6           0       37.154598   45.554053   34.942857
    103          6           0       29.135989   45.761790   34.949396
    104          6           0       29.197486   48.080012   35.718447
    105          6           0       27.673494   47.429809   33.919040
    106          6           0       29.172590   45.524603   43.376055
    107          6           0       29.115357   43.214587   42.582826
    108          6           0       27.635358   43.920266   44.398416
 ---------------------------------------------------------------------

 SCF Done:  E(RB3LYP) =  -2456.13055226     A.U. after    1 cycles

 Excitation energies and oscillator strengths:

 Excited state symmetry could not be determined.
 Excited State   1:      Singlet-?Sym    2.1586 eV  574.37 nm  f=0.0195  <S**2>=0.000
     207 -> 209        -0.30192
     207 -> 210        -0.28653
     208 -> 209         0.40256
     208 -> 210        -0.40142
 This state for optimization and/or second-order correction.
 Total Energy, E(TD-HF/TD-KS) =  -2456.05122409
 Copying the excited state density for this state as the 1-particle RhoCI density.

 Excited state symmetry could not be determined.
 Excited State   2:      Singlet-?Sym    2.3124 eV  536.17 nm  f=0.0313  <S**2>=0.000
     207 -> 209         0.31245
     207 -> 210        -0.30267
     208 -> 209         0.40205
     208 -> 210         0.38363

 Excited state symmetry could not be determined.
 Excited State   3:      Singlet-?Sym    3.1242 eV  396.85 nm  f=0.8157  <S**2>=0.000
     199 -> 209         0.20510
     199 -> 210        -0.16987
     207 -> 209         0.25567
     207 -> 210         0.39520
     208 -> 209         0.27434
     208 -> 210        -0.17879
     208 -> 211        -0.30546

 Excited state symmetry could not be determined.
 Excited State   4:      Singlet-?Sym    3.2043 eV  386.92 nm  f=0.7068  <S**2>=0.000
     199 -> 210        -0.18396
     207 -> 209         0.40137
     207 -> 210        -0.11725
     208 -> 209        -0.11707
     208 -> 210        -0.30219
     208 -> 211         0.41401

 Excited state symmetry could not be determined.
 Excited State   5:      Singlet-?Sym    3.3101 eV  374.56 nm  f=0.0764  <S**2>=0.000
     203 -> 209         0.48517
     203 -> 210        -0.43137
     207 -> 210        -0.10818

 Excited state symmetry could not be determined.
 Excited State   6:      Singlet-?Sym    3.3481 eV  370.31 nm  f=0.4822  <S**2>=0.000
     199 -> 209         0.19897
     203 -> 209         0.11739
     203 -> 210        -0.12682
     207 -> 209        -0.18892
     207 -> 210         0.29982
     208 -> 209         0.21572
     208 -> 210         0.16834
     208 -> 211         0.45883

 Excited state symmetry could not be determined.
 Excited State   7:      Singlet-?Sym    3.3815 eV  366.65 nm  f=0.0001  <S**2>=0.000
     204 -> 209         0.34321
     206 -> 209         0.60148

 Excited state symmetry could not be determined.
 Excited State   8:      Singlet-?Sym    3.4040 eV  364.23 nm  f=0.0001  <S**2>=0.000
     204 -> 210        -0.28233
     206 -> 210         0.62826

 Excited state symmetry could not be determined.
 Excited State   9:      Singlet-?Sym    3.4177 eV  362.77 nm  f=0.0002  <S**2>=0.000
     205 -> 210         0.68840

 Excited state symmetry could not be determined.
 Excited State  10:      Singlet-?Sym    3.4795 eV  356.33 nm  f=0.0007  <S**2>=0.000
     205 -> 209         0.69753

 Excited state symmetry could not be determined.
 Excited State  11:      Singlet-?Sym    3.4850 eV  355.76 nm  f=0.0002  <S**2>=0.000
     203 -> 209         0.10336
     204 -> 209        -0.58827
     206 -> 209         0.36226

 Excited state symmetry could not be determined.
 Excited State  12:      Singlet-?Sym    3.5093 eV  353.30 nm  f=0.0020  <S**2>=0.000
     203 -> 209         0.46105
     203 -> 210         0.50480
     204 -> 210         0.10272

 Excited state symmetry could not be determined.
 Excited State  13:      Singlet-?Sym    3.5287 eV  351.36 nm  f=0.0002  <S**2>=0.000
     203 -> 210        -0.13092
     204 -> 210         0.62870
     206 -> 210         0.28795

 Excited state symmetry could not be determined.
 Excited State  14:      Singlet-?Sym    3.5317 eV  351.06 nm  f=0.0490  <S**2>=0.000
     199 -> 210         0.24566
     207 -> 211        -0.63670

 Excited state symmetry could not be determined.
 Excited State  15:      Singlet-?Sym    3.5410 eV  350.14 nm  f=0.0053  <S**2>=0.000
     200 -> 209        -0.52550
     201 -> 209         0.46082

 Excited state symmetry could not be determined.
 Excited State  16:      Singlet-?Sym    3.5627 eV  348.01 nm  f=0.0068  <S**2>=0.000
     202 -> 209         0.19680
     202 -> 210         0.66094

 Excited state symmetry could not be determined.
 Excited State  17:      Singlet-?Sym    3.5708 eV  347.21 nm  f=0.0047  <S**2>=0.000
     200 -> 210         0.43978
     201 -> 210         0.52986

 Excited state symmetry could not be determined.
 Excited State  18:      Singlet-?Sym    3.5924 eV  345.13 nm  f=0.1457  <S**2>=0.000
     199 -> 209        -0.26744
     199 -> 210        -0.11314
     200 -> 209        -0.13681
     201 -> 209        -0.13430
     202 -> 209         0.56723
     202 -> 210        -0.16731
     207 -> 210         0.11303

 Excited state symmetry could not be determined.
 Excited State  19:      Singlet-?Sym    3.5989 eV  344.51 nm  f=0.0274  <S**2>=0.000
     199 -> 209         0.13791
     200 -> 209         0.40618
     201 -> 209         0.46886
     202 -> 209         0.26760

 Excited state symmetry could not be determined.
 Excited State  20:      Singlet-?Sym    3.6091 eV  343.53 nm  f=0.2516  <S**2>=0.000
     199 -> 209         0.54404
     199 -> 210         0.16139
     200 -> 209        -0.17051
     201 -> 209        -0.20144
     202 -> 209         0.24820
     207 -> 210        -0.14417
     208 -> 209        -0.10532

 Alpha  occ. eigenvalues --  -19.18961 -19.13331 -14.36583 -14.36501 -14.30143
 Alpha  occ. eigenvalues --  -14.30080 -10.31753 -10.23127 -10.22836 -10.22828
 Alpha  occ. eigenvalues --  -10.22792 -10.21131 -10.20945 -10.20860 -10.20829
 Alpha  occ. eigenvalues --  -10.20814 -10.20530 -10.20339 -10.20090 -10.20090
 Alpha  occ. eigenvalues --  -10.20085 -10.19761 -10.19548 -10.19356 -10.19348
 Alpha  occ. eigenvalues --  -10.18935 -10.18929 -10.18925 -10.18903 -10.18896
 Alpha  occ. eigenvalues --  -10.18890 -10.18766 -10.18752 -10.18736 -10.18709
 Alpha  occ. eigenvalues --  -10.18644 -10.18611 -10.18587 -10.18536 -10.18518
 Alpha  occ. eigenvalues --  -10.18507 -10.17457 -10.17440 -10.17420 -10.17244
 Alpha  occ. eigenvalues --  -10.17242 -10.17229 -10.17209 -10.17203 -10.17202
 Alpha  occ. eigenvalues --  -10.17188 -10.17111 -10.17070 -10.17046 -10.16844
 Alpha  occ. eigenvalues --  -10.16841 -10.16838 -10.16818 -10.16801 -10.16801
 Alpha  occ. eigenvalues --   -1.10342  -1.01113  -0.98328  -0.98172  -0.93578
 Alpha  occ. eigenvalues --   -0.93293  -0.87193  -0.86337  -0.86109  -0.86007
 Alpha  occ. eigenvalues --   -0.82311  -0.80977  -0.80554  -0.79789  -0.78628
 Alpha  occ. eigenvalues --   -0.78236  -0.77534  -0.77517  -0.77505  -0.76715
 Alpha  occ. eigenvalues --   -0.76505  -0.75637  -0.75559  -0.74993  -0.74832
 Alpha  occ. eigenvalues --   -0.73479  -0.71594  -0.69554  -0.69536  -0.69522
 Alpha  occ. eigenvalues --   -0.68636  -0.67914  -0.67333  -0.67315  -0.67297
 Alpha  occ. eigenvalues --   -0.67285  -0.65589  -0.64421  -0.64201  -0.61767
 Alpha  occ. eigenvalues --   -0.59741  -0.59430  -0.59114  -0.58874  -0.58365
 Alpha  occ. eigenvalues --   -0.57612  -0.57153  -0.56964  -0.56948  -0.56935
 Alpha  occ. eigenvalues --   -0.56639  -0.55699  -0.54957  -0.54272  -0.53576
 Alpha  occ. eigenvalues --   -0.52543  -0.51329  -0.50280  -0.50176  -0.49856
 Alpha  occ. eigenvalues --   -0.48982  -0.48150  -0.47916  -0.47833  -0.47790
 Alpha  occ. eigenvalues --   -0.46769  -0.46227  -0.45913  -0.45356  -0.44663
 Alpha  occ. eigenvalues --   -0.44521  -0.44262  -0.44027  -0.43777  -0.42994
 Alpha  occ. eigenvalues --   -0.42665  -0.42586  -0.42530  -0.42357  -0.42220
 Alpha  occ. eigenvalues --   -0.42109  -0.42066  -0.41995  -0.41772  -0.41215
 Alpha  occ. eigenvalues --   -0.41061  -0.40823  -0.40816  -0.40717  -0.40699
 Alpha  occ. eigenvalues --   -0.40582  -0.40550  -0.40460  -0.40018  -0.39914
 Alpha  occ. eigenvalues --   -0.39868  -0.39846  -0.39509  -0.39488  -0.39480
 Alpha  occ. eigenvalues --   -0.39468  -0.39088  -0.39054  -0.38995  -0.38576
 Alpha  occ. eigenvalues --   -0.38191  -0.37947  -0.37586  -0.37503  -0.37303
 Alpha  occ. eigenvalues --   -0.37070  -0.36108  -0.36086  -0.36082  -0.36072
 Alpha  occ. eigenvalues --   -0.35834  -0.35772  -0.35161  -0.33623  -0.33219
 Alpha  occ. eigenvalues --   -0.33142  -0.32998  -0.32942  -0.32841  -0.32711
 Alpha  occ. eigenvalues --   -0.32638  -0.32323  -0.31792  -0.30816  -0.27944
 Alpha  occ. eigenvalues --   -0.27636  -0.27095  -0.26451  -0.26384  -0.26324
 Alpha  occ. eigenvalues --   -0.26130  -0.26052  -0.25528  -0.23614  -0.23364
 Alpha  occ. eigenvalues --   -0.23352  -0.23331  -0.23143  -0.23139  -0.23033
 Alpha  occ. eigenvalues --   -0.22929  -0.19477  -0.18462
 Alpha virt. eigenvalues --   -0.08487  -0.08338  -0.04891  -0.02520  -0.00988
 Alpha virt. eigenvalues --   -0.00166  -0.00080   0.00021   0.00783   0.00806
 Alpha virt. eigenvalues --    0.00859   0.04508   0.05335   0.06310   0.06707

 Mulliken atomic charges:
              1
     1  O   -0.587613
     2  O   -0.429662
     3  N   -0.586398
     4  N   -0.584542
     5  N   -0.703899
     6  N   -0.702901
     7  C    0.493191
     8  C    0.068484
     9  C   -0.160595
    10  C   -0.261778
    11  C   -0.264065
    12  C   -0.267295
    13  C   -0.164907
    14  C    0.029547
    15  C   -0.126948
    16  C   -0.124781
    17  C   -0.126784
    18  C   -0.161262
    19  C   -0.163018
    20  C   -0.263442
    21  C   -0.261695
    22  C   -0.259417
    23  C   -0.041241
    24  C   -0.056372
    25  C   -0.059195
    26  C   -0.057302
    27  C    0.312883
    28  C    0.321425
    29  C    0.319493
    30  C    0.321073
    31  C   -0.192237
    32  C   -0.191074
    33  C   -0.191116
    34  C   -0.191941
    35  C    0.250097
    36  C    0.254782
    37  C    0.255263
    38  C    0.255685
    39  C   -0.184909
    40  C   -0.184970
    41  C   -0.184429
    42  C   -0.184403
    43  H    0.144806
    44  H    0.147138
    45  H    0.147228
    46  H    0.147835
    47  H    0.416766
    48  H    0.157012
    49  H    0.160170
    50  H    0.158576
    51  H    0.159038
    52  H    0.161076
    53  H    0.112619
    54  H    0.112459
    55  H    0.112508
    56  H    0.147832
    57  H    0.146992
    58  H    0.165109
    59  H    0.112485
    60  H    0.112464
    61  H    0.113049
    62  H    0.408008
    63  H    0.407877
    64  C   -0.532676
    65  H    0.155660
    66  H    0.156622
    67  H    0.164757
    68  C   -0.533764
    69  H    0.149874
    70  H    0.165867
    71  H    0.170229
    72  C   -0.533740
    73  H    0.150210
    74  H    0.169794
    75  H    0.165495
    76  C   -0.533360
    77  H    0.149699
    78  H    0.165226
    79  H    0.170091
    80  C   -0.534175
    81  H    0.150180
    82  H    0.170856
    83  H    0.165319
    84  C   -0.533772
    85  H    0.161505
    86  H    0.154640
    87  H    0.161185
    88  C   -0.533634
    89  H    0.149952
    90  H    0.165306
    91  H    0.170385
    92  C   -0.533736
    93  H    0.149959
    94  H    0.170157
    95  H    0.165420
    96  C   -0.532741
    97  H    0.157102
    98  H    0.155628
    99  H    0.164076
   100  C    0.210731
   101  C    0.184314
   102  C    0.185592
   103  C    0.184387
   104  C    0.185348
   105  C    0.211122
   106  C    0.184277
   107  C    0.186067
   108  C    0.211788
 Sum of Mulliken atomic charges =   0.00000

 Dipole moment (field-independent basis, Debye):
    X=             -1.9435    Y=              1.5486    Z=             -0.7932  Tot=              2.6085
 Quadrupole moment (field-independent basis, Debye-Ang):
   XX=           -454.2534   YY=           -201.4709   ZZ=           -379.3136
   XY=            -25.3233   XZ=           -110.6730   YZ=             28.7177

 Normal termination of Gaussian 09 at Thu Apr 30 14:56:43 2015.
