 Gaussian 09, Revision B.01,
 Gaussian 09:  AM64L-G09RevB.01 12-Aug-2010

 ----------------------------------------------------------------------
 #p td(singlets,add=10) b3lyp/gen nosymm pseudo=cards geom=check guess=
 read
 ----------------------------------------------------------------------

 opt diznfbtppbz with opt starting geom from Kushal
 --------------------------------------------------
 Z-Matrix taken from the checkpoint file:
 znp.chk
 Charge =  0 Multiplicity = 1

                          Input orientation:
 ---------------------------------------------------------------------
 Center     Atomic      Atomic             Coordinates (Angstroms)
 Number     Number       Type             X           Y           Z
 ---------------------------------------------------------------------
      1          6           0       33.231029   -0.034685    0.032814
      2          6           0       33.855194    0.703747   -0.979775
      3          6           0       33.849727   -0.768404    1.052161
      4          6           0       33.178267    1.450422   -2.018796
      5          7           0       35.211612    0.830581   -1.140917
      6          6           0       33.167227   -1.520264    2.083771
      7          7           0       35.205238   -0.884930    1.228057
      8          6           0       34.145447    2.020601   -2.795081
      9          1           0       32.103758    1.523745   -2.132377
     10          6           0       35.422119    1.627424   -2.237527
     11         30           0       36.670593   -0.021518    0.051613
     12          6           0       34.130206   -2.083076    2.870580
     13          1           0       32.092135   -1.601786    2.185645
     14          6           0       35.409845   -1.680128    2.326979
     15          1           0       34.014840    2.650324   -3.666415
     16          6           0       36.678032    1.997076   -2.733818
     17          7           0       38.135896    0.842613   -1.124249
     18          7           0       38.129533   -0.874312    1.243578
     19          1           0       33.994921   -2.713793    3.740480
     20          6           0       36.663045   -2.040089    2.837058
     21          6           0       37.931198    1.637050   -2.223741
     22          6           0       39.491432    0.725340   -0.948976
     23          6           0       37.918923   -1.670384    2.340762
     24          6           0       39.485965   -0.746745    1.083048
     25          6           0       39.210798    2.040248   -2.767233
     26          6           0       40.173826    1.477762   -1.980207
     27          6           0       40.110117   -0.008350    0.070414
     28          6           0       39.195560   -2.063824    2.898199
     29          6           0       40.162795   -1.494003    2.121676
     30          1           0       39.346137    2.671025   -3.637091
     31          1           0       41.248881    1.559574   -2.082209
     32          1           0       39.326219   -2.693597    3.769498
     33          1           0       41.237268   -1.567646    2.235372
     34          1           0       36.680472    2.634642   -3.613717
     35          1           0       41.196705   -0.004245    0.076314
     36          1           0       36.660724   -2.677650    3.716961
     37          1           0       32.144452   -0.038799    0.026906
 ---------------------------------------------------------------------

 SCF Done:  E(RB3LYP) =  -1054.02255619     A.U. after    1 cycles

 Excitation energies and oscillator strengths:

 Excited state symmetry could not be determined.
 Excited State   1:      Singlet-?Sym    2.4145 eV  513.50 nm  f=0.0012  <S**2>=0.000
      85 -> 88         0.48700
      86 -> 87         0.50407
 This state for optimization and/or second-order correction.
 Total Energy, E(TD-HF/TD-KS) =  -1053.93382591
 Copying the excited state density for this state as the 1-particle RhoCI density.

 Excited state symmetry could not be determined.
 Excited State   2:      Singlet-?Sym    2.4145 eV  513.50 nm  f=0.0012  <S**2>=0.000
      85 -> 87        -0.48707
      86 -> 88         0.50399

 Excited state symmetry could not be determined.
 Excited State   3:      Singlet-?Sym    3.5228 eV  351.95 nm  f=0.8877  <S**2>=0.000
      81 -> 88         0.15157
      84 -> 87        -0.14486
      85 -> 87         0.49673
      86 -> 88         0.46742
      85 <- 87        -0.10747
      86 <- 88        -0.10932

 Excited state symmetry could not be determined.
 Excited State   4:      Singlet-?Sym    3.5229 eV  351.94 nm  f=0.8879  <S**2>=0.000
      81 -> 87        -0.15164
      84 -> 88         0.14468
      85 -> 88         0.49680
      86 -> 87        -0.46737
      85 <- 88        -0.10747
      86 <- 87         0.10934

 Excited state symmetry could not be determined.
 Excited State   5:      Singlet-?Sym    3.7375 eV  331.73 nm  f=0.0000  <S**2>=0.000
      82 -> 87         0.37199
      82 -> 88         0.32769
      83 -> 87         0.32832
      83 -> 88        -0.37160

 Excited state symmetry could not be determined.
 Excited State   6:      Singlet-?Sym    3.7793 eV  328.06 nm  f=0.0000  <S**2>=0.000
      82 -> 87        -0.33683
      82 -> 88        -0.36545
      83 -> 87         0.36572
      83 -> 88        -0.33634

 Excited state symmetry could not be determined.
 Excited State   7:      Singlet-?Sym    3.8191 eV  324.64 nm  f=0.0595  <S**2>=0.000
      84 -> 87         0.68357
      86 -> 88         0.14079

 Excited state symmetry could not be determined.
 Excited State   8:      Singlet-?Sym    3.8193 eV  324.62 nm  f=0.0594  <S**2>=0.000
      84 -> 88         0.68360
      86 -> 87         0.14067

 Excited state symmetry could not be determined.
 Excited State   9:      Singlet-?Sym    3.9067 eV  317.36 nm  f=0.0000  <S**2>=0.000
      82 -> 87         0.36285
      82 -> 88        -0.33454
      83 -> 87         0.33420
      83 -> 88         0.36350

 Excited state symmetry could not be determined.
 Excited State  10:      Singlet-?Sym    3.9431 eV  314.43 nm  f=0.0000  <S**2>=0.000
      80 -> 87         0.70226

 Excited state symmetry could not be determined.
 Excited State  11:      Singlet-?Sym    3.9433 eV  314.41 nm  f=0.0000  <S**2>=0.000
      80 -> 88         0.70226

 Excited state symmetry could not be determined.
 Excited State  12:      Singlet-?Sym    3.9890 eV  310.82 nm  f=0.0000  <S**2>=0.000
      82 -> 87        -0.32898
      82 -> 88         0.37329
      83 -> 87         0.37279
      83 -> 88         0.32923

 Excited state symmetry could not be determined.
 Excited State  13:      Singlet-?Sym    4.1414 eV  299.38 nm  f=0.0000  <S**2>=0.000
      78 -> 87         0.12278
      79 -> 88         0.12275
      86 -> 89         0.68043

 Excited state symmetry could not be determined.
 Excited State  14:      Singlet-?Sym    4.2556 eV  291.34 nm  f=0.0000  <S**2>=0.000
      78 -> 88         0.13744
      79 -> 87        -0.13753
      85 -> 89         0.66894

 Excited state symmetry could not be determined.
 Excited State  15:      Singlet-?Sym    4.2565 eV  291.28 nm  f=0.2040  <S**2>=0.000
      81 -> 87         0.68304
      85 -> 88         0.10477

 Excited state symmetry could not be determined.
 Excited State  16:      Singlet-?Sym    4.2567 eV  291.27 nm  f=0.2039  <S**2>=0.000
      81 -> 88         0.68307
      85 -> 87        -0.10470

 Excited state symmetry could not be determined.
 Excited State  17:      Singlet-?Sym    4.6627 eV  265.91 nm  f=0.0000  <S**2>=0.000
      78 -> 88         0.49553
      79 -> 87         0.49568

 Excited state symmetry could not be determined.
 Excited State  18:      Singlet-?Sym    4.8345 eV  256.46 nm  f=0.0000  <S**2>=0.000
      78 -> 87         0.49524
      79 -> 88        -0.49509

 Excited state symmetry could not be determined.
 Excited State  19:      Singlet-?Sym    5.1327 eV  241.56 nm  f=0.0000  <S**2>=0.000
      78 -> 88         0.46147
      79 -> 87        -0.46119
      85 -> 89        -0.16564
      86 -> 92        -0.18737

 Excited state symmetry could not be determined.
 Excited State  20:      Singlet-?Sym    5.2069 eV  238.11 nm  f=0.0000  <S**2>=0.000
      86 -> 90         0.70414

 Excited state symmetry could not be determined.
 Excited State  21:      Singlet-?Sym    5.2794 eV  234.84 nm  f=0.0000  <S**2>=0.000
      85 -> 90         0.70412

 Excited state symmetry could not be determined.
 Excited State  22:      Singlet-?Sym    5.2883 eV  234.45 nm  f=0.0000  <S**2>=0.000
      78 -> 87        -0.44982
      79 -> 88        -0.45000
      81 -> 89         0.13954
      85 -> 92        -0.21743
      86 -> 89         0.13557

 Excited state symmetry could not be determined.
 Excited State  23:      Singlet-?Sym    5.3088 eV  233.54 nm  f=0.0000  <S**2>=0.000
      76 -> 88        -0.40690
      77 -> 87         0.40920
      80 -> 89        -0.40412

 Excited state symmetry could not be determined.
 Excited State  24:      Singlet-?Sym    5.4466 eV  227.64 nm  f=0.0000  <S**2>=0.000
      84 -> 89         0.70199

 Excited state symmetry could not be determined.
 Excited State  25:      Singlet-?Sym    5.4583 eV  227.15 nm  f=0.0000  <S**2>=0.000
      76 -> 87        -0.49542
      77 -> 88         0.50150

 Excited state symmetry could not be determined.
 Excited State  26:      Singlet-?Sym    5.4818 eV  226.18 nm  f=0.0086  <S**2>=0.000
      76 -> 87         0.13215
      77 -> 88         0.12868
      86 -> 91         0.68064

 Excited state symmetry could not be determined.
 Excited State  27:      Singlet-?Sym    5.4857 eV  226.01 nm  f=0.0801  <S**2>=0.000
      82 -> 89        -0.28199
      83 -> 89         0.64086

 Excited state symmetry could not be determined.
 Excited State  28:      Singlet-?Sym    5.4858 eV  226.01 nm  f=0.0802  <S**2>=0.000
      82 -> 89         0.64087
      83 -> 89         0.28199

 Excited state symmetry could not be determined.
 Excited State  29:      Singlet-?Sym    5.4981 eV  225.50 nm  f=0.0000  <S**2>=0.000
      76 -> 88         0.49890
      77 -> 87         0.49768

 Excited state symmetry could not be determined.
 Excited State  30:      Singlet-?Sym    5.5141 eV  224.85 nm  f=0.0003  <S**2>=0.000
      76 -> 87         0.48149
      77 -> 88         0.47607
      86 -> 91        -0.18619

 Alpha  occ. eigenvalues --  -14.32142 -14.32142 -14.32141 -14.32141 -10.21563
 Alpha  occ. eigenvalues --  -10.21563 -10.21562 -10.21562 -10.21560 -10.21560
 Alpha  occ. eigenvalues --  -10.21560 -10.21559 -10.19077 -10.19077 -10.19077
 Alpha  occ. eigenvalues --  -10.19076 -10.18173 -10.18172 -10.18172 -10.18172
 Alpha  occ. eigenvalues --  -10.18113 -10.18113 -10.18113 -10.18113  -0.95660
 Alpha  occ. eigenvalues --   -0.94790  -0.94790  -0.93929  -0.80867  -0.78259
 Alpha  occ. eigenvalues --   -0.78259  -0.76572  -0.75960  -0.75960  -0.75764
 Alpha  occ. eigenvalues --   -0.73390  -0.71044  -0.64978  -0.64977  -0.59689
 Alpha  occ. eigenvalues --   -0.59395  -0.58486  -0.58135  -0.57669  -0.57669
 Alpha  occ. eigenvalues --   -0.56712  -0.56712  -0.56588  -0.55331  -0.54564
 Alpha  occ. eigenvalues --   -0.52966  -0.51791  -0.51791  -0.49613  -0.49219
 Alpha  occ. eigenvalues --   -0.49218  -0.44367  -0.43131  -0.41992  -0.41962
 Alpha  occ. eigenvalues --   -0.41961  -0.41826  -0.40744  -0.40408  -0.40407
 Alpha  occ. eigenvalues --   -0.38741  -0.38741  -0.38359  -0.37796  -0.37430
 Alpha  occ. eigenvalues --   -0.37179  -0.37178  -0.36683  -0.36378  -0.31790
 Alpha  occ. eigenvalues --   -0.31256  -0.31252  -0.27576  -0.27575  -0.25598
 Alpha  occ. eigenvalues --   -0.25546  -0.24275  -0.24275  -0.24132  -0.19168
 Alpha  occ. eigenvalues --   -0.19011
 Alpha virt. eigenvalues --   -0.07912  -0.07911  -0.02078   0.02817   0.04224
 Alpha virt. eigenvalues --    0.05091   0.06848   0.06848   0.07338   0.07360
 Alpha virt. eigenvalues --    0.08181   0.09981   0.11682   0.11684   0.12600

 Mulliken atomic charges:
              1
     1  C   -0.280276
     2  C    0.340156
     3  C    0.340162
     4  C   -0.186321
     5  N   -0.697202
     6  C   -0.186322
     7  N   -0.697206
     8  C   -0.186254
     9  H    0.134882
    10  C    0.340105
    11  Zn   1.063003
    12  C   -0.186251
    13  H    0.134883
    14  C    0.340097
    15  H    0.134867
    16  C   -0.280324
    17  N   -0.697240
    18  N   -0.697235
    19  H    0.134868
    20  C   -0.280325
    21  C    0.340103
    22  C    0.340175
    23  C    0.340112
    24  C    0.340170
    25  C   -0.186244
    26  C   -0.186344
    27  C   -0.280280
    28  C   -0.186246
    29  C   -0.186342
    30  H    0.134869
    31  H    0.134879
    32  H    0.134869
    33  H    0.134879
    34  H    0.134333
    35  H    0.134334
    36  H    0.134333
    37  H    0.134333
 Sum of Mulliken atomic charges =   0.00000

 Dipole moment (field-independent basis, Debye):
    X=             -0.0002    Y=              0.0000    Z=              0.0000  Tot=              0.0002
 Quadrupole moment (field-independent basis, Debye-Ang):
   XX=           -125.2279   YY=           -142.4675   ZZ=           -134.2588
   XY=              0.1321   XZ=              0.0959   YZ=            -12.4932

 Normal termination of Gaussian 09 at Tue Feb 11 12:38:00 2014.
